 Gaussian 16, Revision A.03,
 Gaussian 16:  ES64L-G16RevA.03 25-Dec-2016

 --------------------------------------------------------------
 #p ub3lyp/6-311++G(d,p) guess=mix opt=(calcfc,ts,noeigen) freq
 --------------------------------------------------------------

 -
 r
 -
 Symbolic Z-matrix:
 Charge =  0 Multiplicity = 1

 SCF Done:  E(UB3LYP) =  -1550.89703496     A.U. after   24 cycles
 SCF Done:  E(UB3LYP) =  -1550.90295009     A.U. after   24 cycles
 SCF Done:  E(UB3LYP) =  -1550.90422152     A.U. after   18 cycles
 SCF Done:  E(UB3LYP) =  -1550.90453868     A.U. after   18 cycles
 SCF Done:  E(UB3LYP) =  -1550.90465658     A.U. after   17 cycles
 SCF Done:  E(UB3LYP) =  -1550.90481451     A.U. after   19 cycles
 SCF Done:  E(UB3LYP) =  -1550.90483391     A.U. after   17 cycles
 SCF Done:  E(UB3LYP) =  -1550.90487571     A.U. after   17 cycles
 SCF Done:  E(UB3LYP) =  -1550.90490860     A.U. after   17 cycles
 SCF Done:  E(UB3LYP) =  -1550.90397620     A.U. after   19 cycles
 SCF Done:  E(UB3LYP) =  -1550.90485910     A.U. after   19 cycles
 SCF Done:  E(UB3LYP) =  -1550.90494919     A.U. after   18 cycles
 SCF Done:  E(UB3LYP) =  -1550.90495980     A.U. after   16 cycles
 SCF Done:  E(UB3LYP) =  -1550.90496364     A.U. after   17 cycles
 SCF Done:  E(UB3LYP) =  -1550.90496417     A.U. after   15 cycles
 SCF Done:  E(UB3LYP) =  -1550.90496440     A.U. after   15 cycles
 SCF Done:  E(UB3LYP) =  -1550.90496447     A.U. after   10 cycles
 SCF Done:  E(UB3LYP) =  -1550.90496470     A.U. after   11 cycles
 SCF Done:  E(UB3LYP) =  -1550.90496475     A.U. after   14 cycles
 Optimization completed.
    -- Stationary point found.
 Normal termination of Gaussian 16 at Mon Mar 13 20:36:14 2023.

 ----------------------------------------------------------------------
 #P Geom=AllCheck Guess=TCheck SCRF=Check GenChk UB3LYP/6-311++G(d,p) F
 req
 ----------------------------------------------------------------------

 Structure from the checkpoint file:  "/work/6444767.1.pod_smp.q/Gau-18474.chk"
 -
 r
 -
 Charge =  0 Multiplicity = 1

                         Standard orientation:
 ---------------------------------------------------------------------
 Center     Atomic      Atomic             Coordinates (Angstroms)
 Number     Number       Type             X           Y           Z
 ---------------------------------------------------------------------
      1          6           0       -2.855519   -0.508595    0.286642
      2          6           0       -1.842904    0.454913    0.472456
      3          6           0       -0.780025    0.529605   -1.202441
      4          6           0        0.247858    1.436740   -0.950564
      5          6           0        1.566528    1.224070   -0.443943
      6          6           0        2.255368    0.090036   -0.165663
      7          1           0       -0.558683   -0.525329   -1.302131
      8          1           0       -1.593794    0.885115   -1.827913
      9          1           0        0.001326    2.485880   -1.081141
     10          1           0        2.134785    2.129904   -0.259305
     11          9           0       -2.510669   -1.790659    0.253115
     12          9           0       -3.822272   -0.243633   -0.586157
     13          9           0       -2.270253    1.721549    0.597910
     14          9           0       -0.937024    0.164182    1.412900
     15         17           0        3.885332    0.171511    0.440079
     16         17           0        1.663521   -1.524401   -0.358217
 ---------------------------------------------------------------------

 SCF Done:  E(UB3LYP) =  -1550.90496475     A.U. after    1 cycles

 The electronic state is 1-A.
 Alpha  occ. eigenvalues -- -101.58869-101.58380 -24.74485 -24.74460 -24.73137
 Alpha  occ. eigenvalues --  -24.73129 -10.38343 -10.36539 -10.30689 -10.21802
 Alpha  occ. eigenvalues --  -10.21390 -10.21281  -9.50326  -9.49815  -7.26812
 Alpha  occ. eigenvalues --   -7.26317  -7.25789  -7.25750  -7.25264  -7.25242
 Alpha  occ. eigenvalues --   -1.32160  -1.30211  -1.26286  -1.24676  -0.93854
 Alpha  occ. eigenvalues --   -0.85833  -0.83202  -0.80791  -0.75322  -0.67843
 Alpha  occ. eigenvalues --   -0.64659  -0.62319  -0.61910  -0.57991  -0.57330
 Alpha  occ. eigenvalues --   -0.55568  -0.53045  -0.52644  -0.49851  -0.49099
 Alpha  occ. eigenvalues --   -0.48355  -0.47365  -0.46666  -0.45589  -0.45002
 Alpha  occ. eigenvalues --   -0.44357  -0.42302  -0.41123  -0.40542  -0.35682
 Alpha  occ. eigenvalues --   -0.35094  -0.34746  -0.33149  -0.29992  -0.23262
 Alpha virt. eigenvalues --   -0.11691  -0.02202  -0.01654  -0.01109   0.00589
 Alpha virt. eigenvalues --    0.01179   0.01673   0.03004   0.03516   0.03836
 Alpha virt. eigenvalues --    0.04499   0.05234   0.05960   0.07100   0.07667

  Beta  occ. eigenvalues -- -101.58884-101.58399 -24.74318 -24.74293 -24.73167
  Beta  occ. eigenvalues --  -24.73154 -10.38671 -10.35800 -10.31095 -10.21727
  Beta  occ. eigenvalues --  -10.21614 -10.21142  -9.50340  -9.49832  -7.26806
  Beta  occ. eigenvalues --   -7.26311  -7.25851  -7.25759  -7.25337  -7.25253
  Beta  occ. eigenvalues --   -1.31824  -1.30198  -1.25999  -1.24671  -0.94214
  Beta  occ. eigenvalues --   -0.85944  -0.83457  -0.80449  -0.75225  -0.67620
  Beta  occ. eigenvalues --   -0.65057  -0.62152  -0.61761  -0.57918  -0.57141
  Beta  occ. eigenvalues --   -0.55302  -0.52829  -0.52558  -0.49802  -0.49173
  Beta  occ. eigenvalues --   -0.47853  -0.47219  -0.46515  -0.45686  -0.44895
  Beta  occ. eigenvalues --   -0.44339  -0.43277  -0.41200  -0.40584  -0.35747
  Beta  occ. eigenvalues --   -0.35503  -0.35085  -0.33190  -0.30081  -0.21982
  Beta virt. eigenvalues --   -0.11109  -0.02622  -0.01891  -0.01285   0.00536
  Beta virt. eigenvalues --    0.01102   0.01565   0.03091   0.03687   0.03933
  Beta virt. eigenvalues --    0.04354   0.05251   0.05935   0.06982   0.07597

 Mulliken charges and spin densities:
               1          2
     1  C    0.273101   0.417536
     2  C   -0.185155  -0.149620
     3  C   -0.668256   0.186448
     4  C   -0.031640  -0.334826
     5  C   -0.749840   0.143914
     6  C   -0.165279  -0.230882
     7  H    0.144687  -0.008255
     8  H    0.242134  -0.011524
     9  H    0.191370   0.020452
    10  H    0.197351  -0.007692
    11  F   -0.073162   0.023284
    12  F   -0.082698   0.023710
    13  F   -0.030972  -0.012616
    14  F    0.004111  -0.012606
    15  Cl   0.400639  -0.023775
    16  Cl   0.533609  -0.023549
 Sum of Mulliken charges =   0.00000  -0.00000

 Dipole moment (field-independent basis, Debye):
    X=              0.4421    Y=              1.1279    Z=             -1.2146  Tot=              1.7155
 Quadrupole moment (field-independent basis, Debye-Ang):
   XX=            -85.6977   YY=            -79.2260   ZZ=            -82.2197
   XY=              2.2225   XZ=              1.1883   YZ=             -1.2417

  Exact polarizability: 223.539  13.714 106.135  -4.100  -8.206  79.499
 Approx polarizability: 404.266  54.197 182.585 -24.250 -23.993 124.480

 ******    1 imaginary frequencies (negative Signs) ******

                      1                      2                      3
                      A                      A                      A
 Frequencies --   -954.3203                22.6266                35.0357
 Red. masses --     10.4431                14.0873                19.5959
 Frc consts  --      5.6036                 0.0042                 0.0142
 IR Inten    --     34.8180                 0.1001                 0.0868

                      4                      5                      6
                      A                      A                      A
 Frequencies --     45.1155                93.0824               106.6241
 Red. masses --     15.8486                18.2754                 9.4024
 Frc consts  --      0.0190                 0.0933                 0.0630
 IR Inten    --      0.1075                 0.0806                 0.4472

                      7                      8                      9
                      A                      A                      A
 Frequencies --    168.1666               181.3327               216.0816
 Red. masses --      7.4073                 8.2307                11.4416
 Frc consts  --      0.1234                 0.1595                 0.3148
 IR Inten    --      0.6502                 1.8973                 1.6546

                     10                     11                     12
                      A                      A                      A
 Frequencies --    254.0893               301.6135               323.8240
 Red. masses --      8.7748                15.2096                 3.6610
 Frc consts  --      0.3338                 0.8152                 0.2262
 IR Inten    --      1.0188                 0.0872                 2.3678

                     13                     14                     15
                      A                      A                      A
 Frequencies --    359.4838               381.3007               450.4930
 Red. masses --      4.9197                16.6769                 4.7747
 Frc consts  --      0.3746                 1.4286                 0.5709
 IR Inten    --      1.1343                 3.0845                 4.4350

                     16                     17                     18
                      A                      A                      A
 Frequencies --    487.9745               502.2806               517.0582
 Red. masses --      9.0740                 4.6095                 5.1866
 Frc consts  --      1.2730                 0.6852                 0.8170
 IR Inten    --    160.0084                 8.6326                 9.4508

                     19                     20                     21
                      A                      A                      A
 Frequencies --    531.8279               566.6849               673.4199
 Red. masses --     11.5327                11.8910                 4.1696
 Frc consts  --      1.9219                 2.2498                 1.1141
 IR Inten    --      1.0225                 1.1650                12.5832

                     22                     23                     24
                      A                      A                      A
 Frequencies --    727.6431               786.8414               880.7912
 Red. masses --     10.9699                 1.4612                 3.2154
 Frc consts  --      3.4221                 0.5330                 1.4697
 IR Inten    --     17.7720                47.8853                99.5439

                     25                     26                     27
                      A                      A                      A
 Frequencies --    912.3489               967.1371              1025.3974
 Red. masses --      1.6002                 1.8111                 1.9546
 Frc consts  --      0.7848                 0.9981                 1.2109
 IR Inten    --     14.6696                38.8304                13.0104

                     28                     29                     30
                      A                      A                      A
 Frequencies --   1046.4139              1146.4006              1150.6774
 Red. masses --      1.5266                 5.4042                 1.4709
 Frc consts  --      0.9848                 4.1846                 1.1475
 IR Inten    --    114.2368               248.7696                17.4546

                     31                     32                     33
                      A                      A                      A
 Frequencies --   1215.4733              1253.6385              1278.5630
 Red. masses --      6.3981                11.7288                 1.8164
 Frc consts  --      5.5692                10.8604                 1.7495
 IR Inten    --    123.7484               241.1729                61.4136

                     34                     35                     36
                      A                      A                      A
 Frequencies --   1336.9146              1436.8016              1479.3004
 Red. masses --      1.4387                 1.9010                 1.8352
 Frc consts  --      1.5150                 2.3122                 2.3661
 IR Inten    --     26.8330               167.0724               189.9889

                     37                     38                     39
                      A                      A                      A
 Frequencies --   1534.2422              1577.0764              3121.1554
 Red. masses --      3.9603                 2.8937                 1.0594
 Frc consts  --      5.4924                 4.2404                 6.0806
 IR Inten    --    267.8418                36.9296                 3.0993

                     40                     41                     42
                      A                      A                      A
 Frequencies --   3152.2252              3169.5749              3217.1576
 Red. masses --      1.0861                 1.0892                 1.1111
 Frc consts  --      6.3586                 6.4468                 6.7758
 IR Inten    --      9.7888                 1.3380                 0.9361

 - Thermochemistry -
 -------------------
 Temperature   298.150 Kelvin.  Pressure   1.00000 Atm.
 Atom     1 has atomic number  6 and mass  12.00000

 Molecular mass:   221.96262 amu.
 Principal axes and moments of inertia in atomic units:
                           1         2         3
     Eigenvalues --  1317.866775304.154925877.79084
           X            0.99999   0.00365   0.00219
           Y           -0.00357   0.99933  -0.03652
           Z           -0.00232   0.03651   0.99933
 This molecule is an asymmetric top.
 Rotational symmetry number  1.
 Warning -- assumption of classical behavior for rotation
           may cause significant error
 Rotational temperatures (Kelvin)      0.06572     0.01633     0.01474
 Rotational constants (GHZ):           1.36944     0.34025     0.30704
    1 imaginary frequencies ignored.
 Zero-point vibrational energy     231082.0 (Joules/Mol)
                                   55.22992 (Kcal/Mol)
 Warning -- explicit consideration of  19 degrees of freedom as
           vibrations may cause significant error
 Vibrational temperatures:     32.55    50.41    64.91   133.92   153.41
          (Kelvin)            241.95   260.90   310.89   365.58   433.95
                              465.91   517.22   548.61   648.16   702.09
                              722.67   743.93   765.18   815.33   968.90
                             1046.92  1132.09  1267.26  1312.67  1391.49
                             1475.32  1505.56  1649.41  1655.57  1748.80
                             1803.71  1839.57  1923.52  2067.24  2128.38
                             2207.43  2269.06  4490.65  4535.35  4560.31
                             4628.77

 Zero-point correction=                           0.088014 (Hartree/Particle)
 Thermal correction to Energy=                    0.100577
 Thermal correction to Enthalpy=                  0.101522
 Thermal correction to Gibbs Free Energy=         0.045997
 Sum of electronic and zero-point Energies=          -1550.816950
 Sum of electronic and thermal Energies=             -1550.804387
 Sum of electronic and thermal Enthalpies=           -1550.803443
 Sum of electronic and thermal Free Energies=        -1550.858968

                     E (Thermal)             CV                S
                      KCal/Mol        Cal/Mol-Kelvin    Cal/Mol-Kelvin
 Total                   63.113             42.739            116.862
 Electronic               0.000              0.000              0.000
 Translational            0.889              2.981             42.095
 Rotational               0.889              2.981             32.085
 Vibrational             61.336             36.777             42.682
 Vibration     1          0.593              1.985              6.389
 Vibration     2          0.594              1.982              5.522
 Vibration     3          0.595              1.979              5.021
 Vibration     4          0.602              1.954              3.594
 Vibration     5          0.605              1.944              3.329
 Vibration     6          0.625              1.882              2.456
 Vibration     7          0.630              1.865              2.315
 Vibration     8          0.645              1.817              1.992
 Vibration     9          0.665              1.756              1.702
 Vibration    10          0.694              1.671              1.408
 Vibration    11          0.708              1.628              1.291
 Vibration    12          0.734              1.556              1.124
 Vibration    13          0.751              1.510              1.034
 Vibration    14          0.809              1.360              0.794
 Vibration    15          0.844              1.277              0.689
 Vibration    16          0.858              1.245              0.652
 Vibration    17          0.872              1.212              0.617
 Vibration    18          0.887              1.180              0.583
 Vibration    19          0.923              1.103              0.511

                           ! Non-Optimized Parameters !
 Normal termination of Gaussian 16 at Mon Mar 13 20:43:35 2023.
