 Gaussian 16, Revision A.03,
 Gaussian 16:  ES64L-G16RevA.03 25-Dec-2016

 ----------------------------------------------------------------------
 #p uwb97xd/6-31g* guess=read opt=(readfc,ts,noeigen,loose) freq scrf=(
 smd,solvent=dmso)
 ----------------------------------------------------------------------

 -
 t
 -
 Symbolic Z-matrix:
 Charge = -1 Multiplicity = 1

 SCF Done:  E(UwB97XD) =  -765.707605440     A.U. after    1 cycles
 SCF Done:  E(UwB97XD) =  -765.707637688     A.U. after   26 cycles
 SCF Done:  E(UwB97XD) =  -765.707606681     A.U. after   25 cycles
 SCF Done:  E(UwB97XD) =  -765.707604429     A.U. after   22 cycles
 SCF Done:  E(UwB97XD) =  -765.707604307     A.U. after   20 cycles
 Optimization completed.
    -- Stationary point found.
 Normal termination of Gaussian 16 at Sun Feb 12 18:29:23 2023.

 ---------------------------------------------------------------------
 #P Geom=AllCheck Guess=TCheck SCRF=Check GenChk UwB97XD/6-31G(d) Freq
 ---------------------------------------------------------------------

 Structure from the checkpoint file:  "TScc-pos.chk"
 -
 t
 -
 Charge = -1 Multiplicity = 1

                         Standard orientation:
 ---------------------------------------------------------------------
 Center     Atomic      Atomic             Coordinates (Angstroms)
 Number     Number       Type             X           Y           Z
 ---------------------------------------------------------------------
      1          6           0        0.898471    0.669333   -0.321541
      2          8           0        2.954327    0.028071   -1.013226
      3          8           0        0.999831    1.214877   -1.526775
      4          8           0        1.378227    1.516639    0.785513
      5          6           0       -0.557245    0.301704    0.055960
      6          6           0       -0.943438    0.049613    1.391702
      7          6           0       -1.508517    0.214653   -0.931005
      8          6           0       -2.264985   -0.307123    1.722610
      9          1           0       -0.201427    0.149818    2.177399
     10          6           0       -2.882348   -0.145850   -0.644375
     11          1           0       -1.223686    0.427294   -1.957017
     12          6           0       -3.221832   -0.410326    0.742212
     13          1           0       -2.522245   -0.495091    2.761447
     14          8           0       -3.745549   -0.227050   -1.550421
     15          6           0        0.896927    2.826586    0.703814
     16          1           0       -0.186048    2.896620    0.914572
     17          1           0        1.424850    3.421801    1.457825
     18          1           0        1.073876    3.257179   -0.289636
     19          1           0       -4.248304   -0.682892    0.969368
     20          6           0        1.886322   -0.516781   -0.338929
     21          6           0        2.266863   -1.242561    0.986379
     22          6           0        1.315117   -1.868849   -0.858318
     23          6           0        1.332363   -2.407228    0.589279
     24          1           0        2.064647   -0.696833    1.911986
     25          1           0        3.320585   -1.543501    0.970881
     26          1           0        0.357869   -1.857340   -1.390618
     27          1           0        2.067961   -2.361808   -1.483151
     28          1           0        0.352785   -2.334073    1.072000
     29          1           0        1.718269   -3.420479    0.737487
 ---------------------------------------------------------------------

 SCF Done:  E(UwB97XD) =  -765.707604307     A.U. after    1 cycles

 The electronic state is 1-A.
 Alpha  occ. eigenvalues --  -19.25018 -19.22306 -19.22281 -19.14335 -10.35659
 Alpha  occ. eigenvalues --  -10.34088 -10.30979 -10.30390 -10.30311 -10.30156
 Alpha  occ. eigenvalues --  -10.30102 -10.29087 -10.28699 -10.27428 -10.26847
 Alpha  occ. eigenvalues --  -10.26163  -1.11748  -1.09768  -1.02610  -0.97312
 Alpha  occ. eigenvalues --   -0.94123  -0.89745  -0.84539  -0.81503  -0.76377
 Alpha  occ. eigenvalues --   -0.73328  -0.70546  -0.69031  -0.67303  -0.63592
 Alpha  occ. eigenvalues --   -0.59340  -0.57638  -0.55470  -0.54795  -0.53468
 Alpha  occ. eigenvalues --   -0.52253  -0.51438  -0.49848  -0.49533  -0.48655
 Alpha  occ. eigenvalues --   -0.48469  -0.46301  -0.45013  -0.43890  -0.43652
 Alpha  occ. eigenvalues --   -0.42696  -0.42200  -0.41729  -0.38432  -0.37678
 Alpha  occ. eigenvalues --   -0.37532  -0.36379  -0.33296  -0.33049  -0.30167
 Alpha  occ. eigenvalues --   -0.28454  -0.28287  -0.25854  -0.22821
 Alpha virt. eigenvalues --    0.00007   0.07316   0.08658   0.18922   0.19996
 Alpha virt. eigenvalues --    0.21724   0.23205   0.23655   0.24283   0.24778
 Alpha virt. eigenvalues --    0.26220   0.26635   0.27634   0.28126   0.28646

  Beta  occ. eigenvalues --  -19.24099 -19.24087 -19.22278 -19.14852 -10.35777
  Beta  occ. eigenvalues --  -10.34122 -10.30513 -10.30351 -10.30342 -10.30101
  Beta  occ. eigenvalues --  -10.29949 -10.28890 -10.28764 -10.27423 -10.26934
  Beta  occ. eigenvalues --  -10.26161  -1.10298  -1.09811  -1.05959  -0.98954
  Beta  occ. eigenvalues --   -0.93454  -0.90474  -0.84268  -0.80014  -0.76418
  Beta  occ. eigenvalues --   -0.73458  -0.70676  -0.69018  -0.66994  -0.63767
  Beta  occ. eigenvalues --   -0.59131  -0.57596  -0.55801  -0.54517  -0.53578
  Beta  occ. eigenvalues --   -0.52487  -0.51285  -0.49294  -0.49035  -0.48587
  Beta  occ. eigenvalues --   -0.47608  -0.46622  -0.45631  -0.44601  -0.43593
  Beta  occ. eigenvalues --   -0.42983  -0.42223  -0.39443  -0.39087  -0.38033
  Beta  occ. eigenvalues --   -0.37299  -0.36983  -0.33558  -0.32097  -0.31259
  Beta  occ. eigenvalues --   -0.30279  -0.29490  -0.26831  -0.25308
  Beta virt. eigenvalues --   -0.05075   0.08825   0.11597   0.19026   0.19903
  Beta virt. eigenvalues --    0.21764   0.23192   0.23826   0.24367   0.25743
  Beta virt. eigenvalues --    0.26357   0.26880   0.27744   0.28188   0.28667

 Mulliken charges and spin densities:
               1          2
     1  C    0.525233  -0.009450
     2  O   -0.467549  -0.776943
     3  O   -0.713405  -0.198302
     4  O   -0.544577   0.000111
     5  C    0.059479  -0.186514
     6  C   -0.197323   0.447874
     7  C   -0.283075   0.306072
     8  C   -0.191986  -0.189247
     9  H    0.204020  -0.019147
    10  C    0.408539  -0.093163
    11  H    0.180935  -0.012774
    12  C   -0.226818   0.339566
    13  H    0.207540   0.006227
    14  O   -0.539721   0.403200
    15  C   -0.247589   0.000895
    16  H    0.115207  -0.000292
    17  H    0.153766  -0.000408
    18  H    0.144799   0.000506
    19  H    0.200316  -0.015170
    20  C    0.356950   0.040234
    21  C   -0.370495  -0.043805
    22  C   -0.367905  -0.001725
    23  C   -0.351392   0.002906
    24  H    0.167764  -0.001829
    25  H    0.158093   0.001863
    26  H    0.147651  -0.000416
    27  H    0.149264   0.001558
    28  H    0.161271  -0.002134
    29  H    0.161008   0.000305
 Sum of Mulliken charges =  -1.00000   0.00000

 Dipole moment (field-independent basis, Debye):
    X=             -3.6091    Y=             -3.4974    Z=              8.2768  Tot=              9.6831
 Quadrupole moment (field-independent basis, Debye-Ang):
   XX=           -128.4581   YY=            -99.3367   ZZ=           -104.0045
   XY=             -6.0202   XZ=             -4.9546   YZ=              3.1295

  Exact polarizability: 258.242 -20.837 162.078  22.809  -9.908 198.473
 Approx polarizability: 181.461   2.563 117.958  19.920  -8.360 169.543

 ******    1 imaginary frequencies (negative Signs) ******

                      1                      2                      3
                      A                      A                      A
 Frequencies --   -152.7036                39.3767                62.4790
 Red. masses --      9.4941                 5.7563                 1.2983
 Frc consts  --      0.1304                 0.0053                 0.0030
 IR Inten    --    435.7403                 5.7109                 0.4718

                      4                      5                      6
                      A                      A                      A
 Frequencies --     78.8202                98.1026               122.9647
 Red. masses --      4.0630                 3.7202                 2.2145
 Frc consts  --      0.0149                 0.0211                 0.0197
 IR Inten    --      2.0645                53.6589                 5.7598

                      7                      8                      9
                      A                      A                      A
 Frequencies --    162.7888               176.0704               204.2445
 Red. masses --      3.9953                 3.3836                 3.8884
 Frc consts  --      0.0624                 0.0618                 0.0956
 IR Inten    --      5.2843                 5.6799                 2.2558

                     10                     11                     12
                      A                      A                      A
 Frequencies --    219.8055               240.2209               280.9753
 Red. masses --      4.6595                 3.3532                 3.6307
 Frc consts  --      0.1326                 0.1140                 0.1689
 IR Inten    --     35.2052                 0.6457                23.8916

                     13                     14                     15
                      A                      A                      A
 Frequencies --    315.5186               335.3462               364.7199
 Red. masses --      5.2266                 3.1567                 5.5710
 Frc consts  --      0.3066                 0.2092                 0.4366
 IR Inten    --     32.0395                 1.2618                14.3178

                     16                     17                     18
                      A                      A                      A
 Frequencies --    412.7182               436.1558               474.6122
 Red. masses --      5.9751                 3.5006                 4.5136
 Frc consts  --      0.5997                 0.3923                 0.5990
 IR Inten    --     17.7762                 2.6703                 8.5435

                     19                     20                     21
                      A                      A                      A
 Frequencies --    505.3463               526.3417               549.6200
 Red. masses --      3.6658                 5.3963                 6.7707
 Frc consts  --      0.5516                 0.8808                 1.2051
 IR Inten    --      9.8131                 9.0515                22.5248

                     22                     23                     24
                      A                      A                      A
 Frequencies --    596.7199               633.0358               665.6792
 Red. masses --      5.3523                 4.5085                 2.4834
 Frc consts  --      1.1229                 1.0645                 0.6484
 IR Inten    --     50.4293                22.8908                17.5098

                     25                     26                     27
                      A                      A                      A
 Frequencies --    676.5617               687.7310               789.4912
 Red. masses --      1.7096                 4.8771                 1.3094
 Frc consts  --      0.4611                 1.3591                 0.4808
 IR Inten    --     12.1652                69.1113                23.9386

                     28                     29                     30
                      A                      A                      A
 Frequencies --    806.7785               813.8607               849.5009
 Red. masses --      1.7107                 1.6153                 5.1166
 Frc consts  --      0.6561                 0.6304                 2.1755
 IR Inten    --    108.5145                68.6251               108.3530

                     31                     32                     33
                      A                      A                      A
 Frequencies --    884.0143               894.0824               940.8302
 Red. masses --      1.7391                 1.9558                 1.4530
 Frc consts  --      0.8007                 0.9211                 0.7578
 IR Inten    --     66.9605                 8.5122                 0.6122

                     34                     35                     36
                      A                      A                      A
 Frequencies --    952.1820               954.1104               987.8744
 Red. masses --      3.5400                 2.2304                 2.2845
 Frc consts  --      1.8910                 1.1963                 1.3135
 IR Inten    --    139.2950                 5.1218                18.4700

                     37                     38                     39
                      A                      A                      A
 Frequencies --    996.9463              1003.5758              1014.2838
 Red. masses --      3.3825                 1.3176                 2.8402
 Frc consts  --      1.9808                 0.7819                 1.7215
 IR Inten    --     17.5397                 0.3154                20.9286

                     40                     41                     42
                      A                      A                      A
 Frequencies --   1032.5011              1067.5800              1099.2679
 Red. masses --      1.3864                 4.4804                 3.2226
 Frc consts  --      0.8708                 3.0086                 2.2943
 IR Inten    --     33.6738                69.9025               177.1465

                     43                     44                     45
                      A                      A                      A
 Frequencies --   1117.7134              1143.6410              1172.6195
 Red. masses --      2.1903                 2.7209                 1.5846
 Frc consts  --      1.6122                 2.0967                 1.2837
 IR Inten    --    147.5998               257.7365                41.2153

                     46                     47                     48
                      A                      A                      A
 Frequencies --   1175.4899              1190.5755              1205.3532
 Red. masses --      2.4314                 1.4729                 1.4945
 Frc consts  --      1.9794                 1.2301                 1.2793
 IR Inten    --     40.3265                21.5435                19.2020

                     49                     50                     51
                      A                      A                      A
 Frequencies --   1208.0229              1221.1447              1229.0824
 Red. masses --      2.4803                 1.8531                 1.7214
 Frc consts  --      2.1326                 1.6281                 1.5321
 IR Inten    --    174.3025                99.7040                77.1406

                     52                     53                     54
                      A                      A                      A
 Frequencies --   1256.7220              1267.1642              1279.3520
 Red. masses --      1.2182                 1.8323                 1.7801
 Frc consts  --      1.1336                 1.7335                 1.7166
 IR Inten    --      1.3286                58.9915                19.1374

                     55                     56                     57
                      A                      A                      A
 Frequencies --   1292.5099              1329.9657              1349.5994
 Red. masses --      1.6819                 2.7979                 3.3729
 Frc consts  --      1.6555                 2.9159                 3.6197
 IR Inten    --     13.7287                71.0289                 4.1099

                     58                     59                     60
                      A                      A                      A
 Frequencies --   1378.5145              1461.6211              1471.8649
 Red. masses --      4.0623                 2.3159                 1.1419
 Frc consts  --      4.5483                 2.9150                 1.4575
 IR Inten    --     58.8631                 6.5923                13.4032

                     61                     62                     63
                      A                      A                      A
 Frequencies --   1491.2470              1502.5615              1516.3377
 Red. masses --      1.0970                 1.0904                 1.0811
 Frc consts  --      1.4373                 1.4504                 1.4646
 IR Inten    --      5.1152                 7.0878                 8.6763

                     64                     65                     66
                      A                      A                      A
 Frequencies --   1526.9472              1546.1379              1555.8593
 Red. masses --      1.1366                 1.0512                 6.8124
 Frc consts  --      1.5613                 1.4805                 9.7161
 IR Inten    --      2.9023                12.7933                65.7529

                     67                     68                     69
                      A                      A                      A
 Frequencies --   1587.7195              1618.8123              2977.6110
 Red. masses --      3.7130                 6.9994                 1.0542
 Frc consts  --      5.5147                10.8070                 5.5068
 IR Inten    --     16.4557                66.1486               159.1932

                     70                     71                     72
                      A                      A                      A
 Frequencies --   3075.7223              3078.5146              3082.8794
 Red. masses --      1.0759                 1.0584                 1.0602
 Frc consts  --      5.9965                 5.9099                 5.9367
 IR Inten    --    129.5593                76.5910                66.2071

                     73                     74                     75
                      A                      A                      A
 Frequencies --   3093.4153              3124.3248              3132.3310
 Red. masses --      1.0625                 1.1043                 1.1081
 Frc consts  --      5.9903                 6.3510                 6.4055
 IR Inten    --     73.3432                57.8895                 9.7103

                     76                     77                     78
                      A                      A                      A
 Frequencies --   3144.7940              3155.6001              3218.0232
 Red. masses --      1.1070                 1.1058                 1.0881
 Frc consts  --      6.4504                 6.4875                 6.6392
 IR Inten    --     71.9283                86.8721                10.0242

                     79                     80                     81
                      A                      A                      A
 Frequencies --   3237.5438              3239.1599              3245.3216
 Red. masses --      1.0929                 1.0899                 1.0937
 Frc consts  --      6.7496                 6.7377                 6.7869
 IR Inten    --     13.0532                 8.7042                13.7094

 - Thermochemistry -
 -------------------
 Temperature   298.150 Kelvin.  Pressure   1.00000 Atm.
 Atom     1 has atomic number  6 and mass  12.00000

 Molecular mass:   221.08138 amu.
 Principal axes and moments of inertia in atomic units:
                           1         2         3
     Eigenvalues --  2172.901384294.948184706.07072
           X            0.99992  -0.01232  -0.00318
           Y            0.01238   0.99973   0.01975
           Z            0.00293  -0.01979   0.99980
 This molecule is an asymmetric top.
 Rotational symmetry number  1.
 Warning -- assumption of classical behavior for rotation
           may cause significant error
 Rotational temperatures (Kelvin)      0.03986     0.02017     0.01840
 Rotational constants (GHZ):           0.83057     0.42020     0.38349
    1 imaginary frequencies ignored.
 Zero-point vibrational energy     597263.5 (Joules/Mol)
                                  142.74940 (Kcal/Mol)
 Warning -- explicit consideration of  21 degrees of freedom as
           vibrations may cause significant error
 Vibrational temperatures:     56.65    89.89   113.40   141.15   176.92
          (Kelvin)            234.22   253.33   293.86   316.25   345.62
                              404.26   453.96   482.49   524.75   593.81
                              627.53   682.86   727.08   757.29   790.78
                              858.55   910.80   957.76   973.42   989.49
                             1135.90  1160.77  1170.96  1222.24  1271.90
                             1286.39  1353.64  1369.98  1372.75  1421.33
                             1434.38  1443.92  1459.33  1485.54  1536.01
                             1581.60  1608.14  1645.44  1687.14  1691.27
                             1712.97  1734.23  1738.08  1756.95  1768.38
                             1808.14  1823.17  1840.70  1859.63  1913.52
                             1941.77  1983.37  2102.95  2117.69  2145.57
                             2161.85  2181.67  2196.94  2224.55  2238.53
                             2284.37  2329.11  4284.12  4425.28  4429.30
                             4435.58  4450.73  4495.21  4506.73  4524.66
                             4540.20  4630.02  4658.10  4660.43  4669.29

 Zero-point correction=                           0.227486 (Hartree/Particle)
 Thermal correction to Energy=                    0.241729
 Thermal correction to Enthalpy=                  0.242673
 Thermal correction to Gibbs Free Energy=         0.186068
 Sum of electronic and zero-point Energies=           -765.480119
 Sum of electronic and thermal Energies=              -765.465875
 Sum of electronic and thermal Enthalpies=            -765.464931
 Sum of electronic and thermal Free Energies=         -765.521536

                     E (Thermal)             CV                S
                      KCal/Mol        Cal/Mol-Kelvin    Cal/Mol-Kelvin
 Total                  151.687             54.722            119.135
 Electronic               0.000              0.000              0.000
 Translational            0.889              2.981             42.083
 Rotational               0.889              2.981             32.152
 Vibrational            149.910             48.761             44.901
 Vibration     1          0.594              1.981              5.290
 Vibration     2          0.597              1.972              4.377
 Vibration     3          0.600              1.963              3.920
 Vibration     4          0.604              1.951              3.492
 Vibration     5          0.610              1.930              3.053
 Vibration     6          0.623              1.888              2.517
 Vibration     7          0.628              1.872              2.370
 Vibration     8          0.640              1.834              2.095
 Vibration     9          0.647              1.811              1.961
 Vibration    10          0.657              1.779              1.801
 Vibration    11          0.681              1.709              1.528
 Vibration    12          0.703              1.644              1.333
 Vibration    13          0.716              1.605              1.234
 Vibration    14          0.738              1.545              1.102
 Vibration    15          0.776              1.443              0.917
 Vibration    16          0.797              1.391              0.839
 Vibration    17          0.831              1.306              0.725
 Vibration    18          0.861              1.238              0.645
 Vibration    19          0.881              1.192              0.595
 Vibration    20          0.905              1.141              0.545
 Vibration    21          0.955              1.039              0.455

 Optimization completed on the basis of negligible forces.
    -- Stationary point found.
 Normal termination of Gaussian 16 at Sun Feb 12 18:35:09 2023.
