 Gaussian 16, Revision A.03,
 Gaussian 16:  ES64L-G16RevA.03 25-Dec-2016

 ---------------------------------------------------------
 #p uwb97xd/6-31g* freq guess=read scrf=(smd,solvent=dmso)
 ---------------------------------------------------------

 -
 t
 -
 Symbolic Z-matrix:
 Charge = -1 Multiplicity = 1

                         Standard orientation:
 ---------------------------------------------------------------------
 Center     Atomic      Atomic             Coordinates (Angstroms)
 Number     Number       Type             X           Y           Z
 ---------------------------------------------------------------------
      1          6           0        0.853807    0.595992   -0.322163
      2          8           0        2.609264   -0.224186   -1.393465
      3          8           0        0.949282    0.891367   -1.681378
      4          8           0        1.447211    1.581889    0.479832
      5          6           0       -0.599738    0.339445    0.055453
      6          6           0       -0.983340    0.496474    1.394847
      7          6           0       -1.509480   -0.073919   -0.910046
      8          6           0       -2.312746    0.217031    1.731093
      9          1           0       -0.267026    0.825640    2.139916
     10          6           0       -2.893926   -0.362262   -0.608452
     11          1           0       -1.186925   -0.201829   -1.939557
     12          6           0       -3.236338   -0.194334    0.783599
     13          1           0       -2.627624    0.324783    2.768753
     14          8           0       -3.720820   -0.729209   -1.488452
     15          6           0        0.952297    2.892107    0.272919
     16          1           0       -0.126925    2.955992    0.460514
     17          1           0        1.474618    3.533836    0.986068
     18          1           0        1.161987    3.242834   -0.744039
     19          1           0       -4.264482   -0.403828    1.075911
     20          6           0        1.822573   -0.622968   -0.319284
     21          6           0        2.544628   -0.952249    1.008779
     22          6           0        1.222495   -2.042537   -0.327327
     23          6           0        1.581875   -2.151113    1.172063
     24          1           0        2.546254   -0.165720    1.765063
     25          1           0        3.571696   -1.275387    0.811637
     26          1           0        0.177054   -2.158084   -0.622219
     27          1           0        1.852828   -2.692788   -0.942332
     28          1           0        0.731902   -1.901985    1.812862
     29          1           0        2.024493   -3.092361    1.506224
 ---------------------------------------------------------------------

 SCF Done:  E(UwB97XD) =  -765.687844944     A.U. after    1 cycles

 The electronic state is 1-A.
 Alpha  occ. eigenvalues --  -19.32163 -19.29766 -19.26886 -19.15427 -10.39804
 Alpha  occ. eigenvalues --  -10.35102 -10.32179 -10.30909 -10.28900 -10.28721
 Alpha  occ. eigenvalues --  -10.28499 -10.27970 -10.27722 -10.25935 -10.25448
 Alpha  occ. eigenvalues --  -10.25166  -1.18031  -1.10621  -1.05355  -1.03184
 Alpha  occ. eigenvalues --   -0.92909  -0.90904  -0.83142  -0.79976  -0.77554
 Alpha  occ. eigenvalues --   -0.75227  -0.72921  -0.69191  -0.65724  -0.64683
 Alpha  occ. eigenvalues --   -0.60902  -0.58326  -0.57682  -0.57041  -0.54326
 Alpha  occ. eigenvalues --   -0.53238  -0.51894  -0.51067  -0.50131  -0.49565
 Alpha  occ. eigenvalues --   -0.48576  -0.47360  -0.45823  -0.44554  -0.43762
 Alpha  occ. eigenvalues --   -0.43077  -0.42178  -0.40929  -0.40528  -0.39560
 Alpha  occ. eigenvalues --   -0.39516  -0.37851  -0.37160  -0.36262  -0.34110
 Alpha  occ. eigenvalues --   -0.32978  -0.30301  -0.25844  -0.21981
 Alpha virt. eigenvalues --   -0.04484   0.09195   0.12523   0.18430   0.19130
 Alpha virt. eigenvalues --    0.21653   0.22417   0.22605   0.23115   0.25660
 Alpha virt. eigenvalues --    0.26330   0.26598   0.26809   0.27396   0.28023

  Beta  occ. eigenvalues --  -19.31546 -19.30346 -19.26900 -19.15393 -10.39975
  Beta  occ. eigenvalues --  -10.34954 -10.32182 -10.30906 -10.28811 -10.28810
  Beta  occ. eigenvalues --  -10.28503 -10.27974 -10.27703 -10.25950 -10.25444
  Beta  occ. eigenvalues --  -10.25185  -1.17226  -1.12073  -1.04407  -1.03112
  Beta  occ. eigenvalues --   -0.93477  -0.90828  -0.82755  -0.79995  -0.77540
  Beta  occ. eigenvalues --   -0.75317  -0.73216  -0.69090  -0.65639  -0.64566
  Beta  occ. eigenvalues --   -0.60866  -0.58427  -0.57581  -0.56700  -0.54556
  Beta  occ. eigenvalues --   -0.53129  -0.51976  -0.50987  -0.50159  -0.49519
  Beta  occ. eigenvalues --   -0.48501  -0.47600  -0.45965  -0.44561  -0.44126
  Beta  occ. eigenvalues --   -0.43529  -0.41826  -0.40724  -0.40420  -0.39742
  Beta  occ. eigenvalues --   -0.39470  -0.37156  -0.36752  -0.35638  -0.34228
  Beta  occ. eigenvalues --   -0.33999  -0.30018  -0.25809  -0.21948
  Beta virt. eigenvalues --   -0.04848   0.09192   0.12642   0.18348   0.19072
  Beta virt. eigenvalues --    0.21711   0.22394   0.22591   0.23172   0.25699
  Beta virt. eigenvalues --    0.26367   0.26591   0.26871   0.27403   0.27909

 Mulliken charges and spin densities:
               1          2
     1  C    0.484943  -0.108671
     2  O   -0.371868  -0.809528
     3  O   -0.359845   0.814724
     4  O   -0.507783  -0.001946
     5  C    0.083599   0.054344
     6  C   -0.297662  -0.018278
     7  C   -0.374582  -0.001157
     8  C   -0.205916   0.015551
     9  H    0.157762   0.000957
    10  C    0.407163   0.004677
    11  H    0.135105  -0.000497
    12  C   -0.331608  -0.018064
    13  H    0.164265   0.000114
    14  O   -0.715885   0.014552
    15  C   -0.279021  -0.001203
    16  H    0.163350   0.000340
    17  H    0.191144   0.000257
    18  H    0.173316  -0.000539
    19  H    0.127573   0.000737
    20  C    0.320889   0.106623
    21  C   -0.356308  -0.052040
    22  C   -0.359666  -0.007512
    23  C   -0.348367  -0.001326
    24  H    0.194586   0.002360
    25  H    0.189125   0.004072
    26  H    0.178736   0.001123
    27  H    0.180025   0.002677
    28  H    0.177697  -0.001217
    29  H    0.179230  -0.001129
 Sum of Mulliken charges =  -1.00000   0.00000

 Dipole moment (field-independent basis, Debye):
    X=             10.4371    Y=              1.1333    Z=              5.9940  Tot=             12.0890
 Quadrupole moment (field-independent basis, Debye-Ang):
   XX=           -142.2323   YY=            -91.6808   ZZ=           -105.9367
   XY=            -10.3302   XZ=             -9.0237   YZ=             -1.5643

  Exact polarizability: 251.837  16.829 141.548  -2.000  13.198 199.732
 Approx polarizability: 184.636  15.542 115.919   4.752  10.811 173.013

 ******    1 imaginary frequencies (negative Signs) ******

                      1                      2                      3
                      A                      A                      A
 Frequencies --   -498.1619                44.0597                62.6193
 Red. masses --     15.1085                 4.4743                 4.1837
 Frc consts  --      2.2091                 0.0051                 0.0097
 IR Inten    --     28.7548                 3.3950                 1.9323

                      4                      5                      6
                      A                      A                      A
 Frequencies --     76.2772                90.3887               141.5073
 Red. masses --      4.4065                 1.3587                 2.3089
 Frc consts  --      0.0151                 0.0065                 0.0272
 IR Inten    --      2.3557                 1.3913                 0.5694

                      7                      8                      9
                      A                      A                      A
 Frequencies --    157.8048               170.2644               214.1533
 Red. masses --      2.6679                 3.6629                 3.4534
 Frc consts  --      0.0391                 0.0626                 0.0933
 IR Inten    --      0.9380                 7.8916                 7.8247

                     10                     11                     12
                      A                      A                      A
 Frequencies --    217.2866               246.9827               284.4112
 Red. masses --      4.4572                 4.6502                 3.4831
 Frc consts  --      0.1240                 0.1671                 0.1660
 IR Inten    --      2.0601                 4.1889                 4.7571

                     13                     14                     15
                      A                      A                      A
 Frequencies --    320.9781               342.1465               380.1060
 Red. masses --      7.0113                 3.3654                 6.2347
 Frc consts  --      0.4256                 0.2321                 0.5307
 IR Inten    --      3.6006                 2.3728                 9.6441

                     16                     17                     18
                      A                      A                      A
 Frequencies --    391.7837               462.1745               474.1732
 Red. masses --      4.8297                 4.9215                 3.2550
 Frc consts  --      0.4368                 0.6194                 0.4312
 IR Inten    --      1.3116                 0.7768                 5.5329

                     19                     20                     21
                      A                      A                      A
 Frequencies --    514.9906               527.3872               548.0368
 Red. masses --      3.7175                 5.5609                 6.9866
 Frc consts  --      0.5809                 0.9113                 1.2363
 IR Inten    --      9.7323                 3.4812                20.4153

                     22                     23                     24
                      A                      A                      A
 Frequencies --    622.2488               651.4926               656.8531
 Red. masses --      4.8203                 3.9004                 2.9759
 Frc consts  --      1.0996                 0.9754                 0.7565
 IR Inten    --      3.9747                 2.6270                 4.8181

                     25                     26                     27
                      A                      A                      A
 Frequencies --    712.6288               735.2292               772.1250
 Red. masses --      3.8773                 2.2959                 1.5348
 Frc consts  --      1.1601                 0.7312                 0.5391
 IR Inten    --      1.0805                26.3499                69.7781

                     28                     29                     30
                      A                      A                      A
 Frequencies --    788.2519               801.8851               856.5059
 Red. masses --      1.2776                 1.6590                 1.5506
 Frc consts  --      0.4677                 0.6285                 0.6702
 IR Inten    --      6.3503                 9.3763                 7.0300

                     31                     32                     33
                      A                      A                      A
 Frequencies --    866.0369               886.9216               910.6566
 Red. masses --      2.0646                 2.8202                 2.2499
 Frc consts  --      0.9123                 1.3071                 1.0993
 IR Inten    --     45.1001                27.9289                 4.3658

                     34                     35                     36
                      A                      A                      A
 Frequencies --    952.3448               973.8228               978.5028
 Red. masses --      2.3847                 3.9447                 2.2875
 Frc consts  --      1.2743                 2.2040                 1.2904
 IR Inten    --      3.3151                65.5396                37.8049

                     37                     38                     39
                      A                      A                      A
 Frequencies --    981.3154               987.4828              1004.9916
 Red. masses --      1.4358                 5.2943                 2.4263
 Frc consts  --      0.8146                 3.0417                 1.4438
 IR Inten    --      2.7250                43.3640                59.2380

                     40                     41                     42
                      A                      A                      A
 Frequencies --   1024.7494              1044.2960              1091.0470
 Red. masses --      2.0848                 4.1878                 2.3865
 Frc consts  --      1.2899                 2.6908                 1.6738
 IR Inten    --      9.2731                67.1986                 7.9530

                     43                     44                     45
                      A                      A                      A
 Frequencies --   1106.3556              1133.5898              1163.3068
 Red. masses --      1.6280                 7.7298                 2.7030
 Frc consts  --      1.1741                 5.8523                 2.1552
 IR Inten    --      7.8543               397.1519                 2.2787

                     46                     47                     48
                      A                      A                      A
 Frequencies --   1175.0191              1192.3996              1197.9643
 Red. masses --      1.1658                 1.6456                 2.2642
 Frc consts  --      0.9484                 1.3786                 1.9145
 IR Inten    --     11.6220                 5.5173                53.4984

                     49                     50                     51
                      A                      A                      A
 Frequencies --   1201.4801              1211.6531              1241.7422
 Red. masses --      2.0987                 1.4279                 1.5832
 Frc consts  --      1.7850                 1.2351                 1.4383
 IR Inten    --     51.0426                 1.5160                44.2649

                     52                     53                     54
                      A                      A                      A
 Frequencies --   1253.3957              1263.1942              1267.1913
 Red. masses --      1.4194                 1.7544                 1.6674
 Frc consts  --      1.3138                 1.6494                 1.5776
 IR Inten    --      4.6722                 8.6597                 4.9813

                     55                     56                     57
                      A                      A                      A
 Frequencies --   1287.0366              1311.1589              1330.5841
 Red. masses --      1.4076                 1.9185                 1.9591
 Frc consts  --      1.3738                 1.9432                 2.0436
 IR Inten    --      8.0348                27.7371                54.7119

                     58                     59                     60
                      A                      A                      A
 Frequencies --   1426.2197              1485.6394              1495.9165
 Red. masses --      2.6241                 1.1113                 1.1366
 Frc consts  --      3.1449                 1.4451                 1.4985
 IR Inten    --     41.1179                 9.5816                35.2601

                     61                     62                     63
                      A                      A                      A
 Frequencies --   1498.5010              1505.6497              1516.0784
 Red. masses --      2.2402                 1.3863                 1.1395
 Frc consts  --      2.9638                 1.8517                 1.5431
 IR Inten    --    118.2477                44.7114                 4.1004

                     64                     65                     66
                      A                      A                      A
 Frequencies --   1516.8812              1534.4677              1593.9948
 Red. masses --      1.0517                 1.0498                 5.0350
 Frc consts  --      1.4258                 1.4563                 7.5374
 IR Inten    --      5.6461                 9.3974               121.7297

                     67                     68                     69
                      A                      A                      A
 Frequencies --   1609.5944              1678.9744              3056.9439
 Red. masses --      5.9915                 7.3508                 1.0329
 Frc consts  --      9.1458                12.2089                 5.6871
 IR Inten    --    146.0028               845.6711                69.0828

                     70                     71                     72
                      A                      A                      A
 Frequencies --   3099.3525              3106.1384              3111.9406
 Red. masses --      1.0614                 1.0613                 1.0622
 Frc consts  --      6.0069                 6.0331                 6.0604
 IR Inten    --     36.9007                35.8002                44.8046

                     73                     74                     75
                      A                      A                      A
 Frequencies --   3128.3561              3163.4277              3172.0622
 Red. masses --      1.1053                 1.1078                 1.0859
 Frc consts  --      6.3730                 6.5318                 6.4378
 IR Inten    --     52.9933                11.0368                31.2377

                     76                     77                     78
                      A                      A                      A
 Frequencies --   3173.2392              3173.8071              3185.4199
 Red. masses --      1.1032                 1.1071                 1.1055
 Frc consts  --      6.5450                 6.5705                 6.6090
 IR Inten    --     44.1187                31.9740                30.6982

                     79                     80                     81
                      A                      A                      A
 Frequencies --   3193.3082              3218.5801              3237.6298
 Red. masses --      1.0940                 1.0893                 1.0921
 Frc consts  --      6.5729                 6.6488                 6.7450
 IR Inten    --     91.6260                22.1869                10.8724

 - Thermochemistry -
 -------------------
 Temperature   298.150 Kelvin.  Pressure   1.00000 Atm.
 Atom     1 has atomic number  6 and mass  12.00000

 Molecular mass:   221.08138 amu.
 Principal axes and moments of inertia in atomic units:
                           1         2         3
     Eigenvalues --  2192.023764335.796114676.55926
           X            0.99990  -0.01405   0.00081
           Y            0.01406   0.99989  -0.00562
           Z           -0.00074   0.00563   0.99998
 This molecule is an asymmetric top.
 Rotational symmetry number  1.
 Warning -- assumption of classical behavior for rotation
           may cause significant error
 Rotational temperatures (Kelvin)      0.03951     0.01998     0.01852
 Rotational constants (GHZ):           0.82332     0.41624     0.38591
    1 imaginary frequencies ignored.
 Zero-point vibrational energy     599240.1 (Joules/Mol)
                                  143.22181 (Kcal/Mol)
 Warning -- explicit consideration of  20 degrees of freedom as
           vibrations may cause significant error
 Vibrational temperatures:     63.39    90.10   109.75   130.05   203.60
          (Kelvin)            227.05   244.97   308.12   312.63   355.35
                              409.20   461.82   492.27   546.89   563.69
                              664.97   682.23   740.96   758.79   788.50
                              895.28   937.35   945.07  1025.31  1057.83
                             1110.92  1134.12  1153.73  1232.32  1246.03
                             1276.08  1310.23  1370.21  1401.11  1407.85
                             1411.89  1420.77  1445.96  1474.39  1502.51
                             1569.77  1591.80  1630.98  1673.74  1690.59
                             1715.60  1723.60  1728.66  1743.30  1786.59
                             1803.36  1817.45  1823.21  1851.76  1886.47
                             1914.41  2052.01  2137.50  2152.29  2156.01
                             2166.29  2181.30  2182.45  2207.76  2293.40
                             2315.85  2415.67  4398.26  4459.28  4469.04
                             4477.39  4501.01  4551.47  4563.89  4565.58
                             4566.40  4583.11  4594.46  4630.82  4658.23

 Zero-point correction=                           0.228238 (Hartree/Particle)
 Thermal correction to Energy=                    0.242395
 Thermal correction to Enthalpy=                  0.243339
 Thermal correction to Gibbs Free Energy=         0.186964
 Sum of electronic and zero-point Energies=           -765.459606
 Sum of electronic and thermal Energies=              -765.445450
 Sum of electronic and thermal Enthalpies=            -765.444506
 Sum of electronic and thermal Free Energies=         -765.500881

                     E (Thermal)             CV                S
                      KCal/Mol        Cal/Mol-Kelvin    Cal/Mol-Kelvin
 Total                  152.105             54.598            118.653
 Electronic               0.000              0.000              0.000
 Translational            0.889              2.981             42.083
 Rotational               0.889              2.981             32.164
 Vibrational            150.328             48.636             44.406
 Vibration     1          0.595              1.980              5.068
 Vibration     2          0.597              1.972              4.373
 Vibration     3          0.599              1.965              3.984
 Vibration     4          0.602              1.956              3.652
 Vibration     5          0.615              1.912              2.783
 Vibration     6          0.621              1.894              2.576
 Vibration     7          0.625              1.879              2.433
 Vibration     8          0.644              1.819              2.008
 Vibration     9          0.646              1.815              1.982
 Vibration    10          0.661              1.768              1.752
 Vibration    11          0.683              1.703              1.507
 Vibration    12          0.706              1.633              1.305
 Vibration    13          0.721              1.591              1.202
 Vibration    14          0.750              1.513              1.039
 Vibration    15          0.759              1.488              0.993
 Vibration    16          0.820              1.334              0.760
 Vibration    17          0.831              1.307              0.726
 Vibration    18          0.870              1.217              0.622
 Vibration    19          0.882              1.189              0.593
 Vibration    20          0.903              1.144              0.548

 Normal termination of Gaussian 16 at Tue Feb  7 11:53:37 2023.
